version 2
run Exercise3-0-20160423-11:56:24-4581
attr configname Exercise3
attr datetime 20160423-11:56:24
attr experiment Exercise3
attr inifile omnetpp.ini
attr iterationvars ""
attr iterationvars2 $repetition=0
attr measurement ""
attr network Ex3Network
attr processid 4581
attr repetition 0
attr replication #0
attr resultdir results
attr runnumber 0
attr seedset 0

vector 0  Ex3Network.reciever  currentInterarrival:vector  ETV
attr interpolationmode  none
attr source  arrival
attr title  "currentInterarrival time, vector"
0	2	0.100007826399	0.100007826399
0	4	0.241039030381	0.1205195151905
0	6	1.650009860317	0.55000328677233
0	8	2.26369936363	0.5659248409075
0	10	3.024627088685	0.604925417737
0	13	3.2717549611	0.54529249351667
0	14	3.319942154141	0.47427745059157
0	16	4.455834956981	0.55697936962262
0	18	5.593072923068	0.62145254700756
0	20	8.321727387244	0.8321727387244
0	22	8.80542771373	0.80049342852091
0	24	9.538181736385	0.79484847803208
0	28	11.315833271164	0.87044871316646
0	29	11.35101713832	0.81078693845143
0	30	11.405960914002	0.7603973942668
0	32	12.160345815646	0.76002161347788
0	35	13.272497502873	0.78073514722782
0	36	13.280225473076	0.73779030405978
0	39	13.763785619564	0.72440976945074
0	40	13.832966620406	0.6916483310203
0	42	14.373368636387	0.68444612554224
0	44	15.534194830782	0.70609976503555
0	46	16.423300067517	0.71405652467465
0	48	19.088815272444	0.7953673030185
0	50	20.960702243807	0.83842808975228
0	53	21.709211570223	0.83496967577781
0	54	21.805683804831	0.80761791869744
0	56	22.866766124049	0.81667021871604
0	58	23.404619319252	0.8070558385949
0	60	24.612568668801	0.8204189556267
0	62	27.024085434378	0.87174469143155
0	64	28.460402487086	0.88938757772144
0	67	28.764827942646	0.87166145280745
0	68	28.813455859394	0.84745458409982
0	70	30.145572253524	0.8613020643864
0	72	30.543417803757	0.84842827232658
0	74	31.544826891467	0.85256288895857
0	76	32.957097682763	0.86729204428324
0	78	37.671791035736	0.96594335989067
0	80	38.126454798095	0.95316136995237
0	82	38.410196491667	0.93683406077237
0	84	42.45862855031	1.0109197273883
0	86	43.74114108525	1.0172358391919
0	88	45.140949695193	1.0259306748907
0	91	46.195120045414	1.0265582232314
0	92	46.270582962919	1.0058822383243
0	94	47.26926318299	1.0057290038934
0	96	49.429542866507	1.0297821430522
0	98	49.747972802384	1.0152647510691
0	100	50.321403539045	1.0064280707809
0	102	51.77595437814	1.0152147917282
0	104	52.425528341502	1.0081832373366
0	106	52.697041089953	0.99428379415006
0	108	53.018496226378	0.98182400419219
0	110	53.46363551842	0.97206610033491
0	112	53.645765734112	0.95796010239486
0	114	54.312304836759	0.95284745327647
0	116	56.591723231718	0.9757193660641
0	119	58.990908458889	0.99984590608286
0	120	59.053384391373	0.98422307318955
0	122	61.403617774676	1.0066166848308
0	124	62.105851906765	1.0017072888188
0	126	62.83212569221	0.99733532844778
0	128	63.216367038181	0.98775573497158
0	130	67.532015281118	1.038954081248
0	132	68.213187815219	1.0335331487154
0	135	68.522630961463	1.0227258352457
0	136	68.617747344461	1.0090845197715
0	139	71.569735504748	1.0372425435471
0	140	71.646345608736	1.0235192229819
0	142	72.340907980254	1.0188860278909
0	144	72.825647082397	1.0114673205888
0	146	73.150106285893	1.0020562504917
0	148	75.601393755797	1.0216404561594
0	150	76.355879024755	1.0180783869967
0	152	76.980332252145	1.0128991085809
0	155	79.810210386722	1.0364962387886
0	156	79.86159208895	1.0238665652429
0	158	81.295037860397	1.0290511121569
0	160	82.765603561423	1.0345700445178
0	162	84.52480272175	1.0435160829846
0	165	84.658751773762	1.032423802119
0	166	84.674746714811	1.0201776712628
0	168	85.840959171517	1.0219161806133
0	170	87.867786496028	1.0337386646592
0	172	88.860805525225	1.0332651805259
0	174	90.193462497174	1.0367064654848
0	176	91.485945979274	1.0396130224917
0	178	99.005968156685	1.1124266085021
0	180	101.200346714387	1.1244482968265
0	182	101.465869303218	1.1150095527826
0	184	101.831616463025	1.1068653963372
0	186	102.263962520489	1.0996125002203
0	188	102.984015851794	1.0955746367212
0	190	103.878333721868	1.0934561444407
0	192	105.749016668617	1.1015522569648
0	194	106.280182374343	1.0956719832406
0	196	108.122250190614	1.1032882672512
0	198	108.436026129192	1.0953133952444
0	200	108.972844345427	1.0897284434543
0	202	109.74352932118	1.0865695972394
0	204	110.374485800921	1.0821028019698
0	206	110.713057560277	1.0748840539833
0	208	110.909471190376	1.0664372229844
0	210	111.076376168246	1.0578702492214
0	212	111.92420206059	1.0558886986848
0	215	113.545741539382	1.0611751545737
0	216	113.579353913281	1.0516606843822
0	218	114.343889349242	1.0490265077912
0	220	115.034001379086	1.0457636489008
0	222	118.143143374303	1.0643526430117
0	224	119.52263155514	1.0671663531709
0	226	120.331377817057	1.0648794497085
0	228	122.54537968537	1.0749594709243
0	230	123.525807130143	1.0741374533056
0	232	125.371218122127	1.0807863631218
0	234	125.545294788783	1.0730367075964
0	236	125.784506132132	1.0659703909503
0	238	127.038755092307	1.0675525638009
0	241	127.178508385945	1.0598209032162
0	242	127.273907940109	1.0518504788439
0	245	127.594923653665	1.0458600299481
0	246	127.597927762441	1.0373815265239
0	249	128.13286382676	1.03332954699
0	250	128.160107889623	1.025280863117
0	252	129.397360346618	1.0269631773541
0	254	132.176326156513	1.0407584736733
0	256	132.450645647114	1.0347706691181
0	258	132.650189754963	1.0282960446121
0	260	133.032240437779	1.0233249264445
0	262	135.21252526924	1.0321566814446
0	264	136.268246721379	1.0323352024347
0	266	136.431159916402	1.0257981948602
0	268	137.574809992569	1.0266776865117
0	270	138.062268603744	1.0226834711388
0	272	138.552842905637	1.0187709037179
0	274	139.245472285717	1.0163903086549
0	276	139.405093069931	1.0101818338401
0	278	140.289852730827	1.0092795160491
0	280	142.157903741233	1.0154135981517
0	282	143.049766798799	1.014537353183
0	284	146.159986150775	1.0292956771181
0	286	146.972246063093	1.0277779444972
0	288	147.132592721001	1.0217541161181
0	290	151.225244569195	1.0429327211669
0	292	151.750789143554	1.0393889667367
0	294	151.903730288593	1.0333587094462
0	296	152.735906646264	1.0319993692315
0	298	153.026427954396	1.0270230064053
0	300	153.696864093266	1.0246457606218
0	302	154.320542169652	1.0219903454944
0	304	157.567178301199	1.0366261730342
0	306	157.701888452405	1.0307312970745
0	308	157.924728549084	1.0254852503187
0	310	158.309288217693	1.0213502465658
0	312	159.301567187188	1.0211638922256
0	314	159.43705724979	1.015522657642
0	316	160.490467924987	1.0157624552214
0	318	161.462361292006	1.0154865490063
0	320	163.087283450277	1.0192955215642
0	322	163.372091999811	1.0147334906821
0	324	164.01917998627	1.0124640739893
0	326	164.512352627997	1.0092782369816
0	329	164.739567373873	1.0045095571578
0	330	164.768352911998	0.99859607825453
0	332	167.087814611179	1.0065531000673
0	334	167.643807443127	1.00385513439
0	336	167.796983135954	0.99879156628544
0	338	170.7436734777	1.0103175945426
0	340	171.27183692964	1.0074813937038
0	342	171.41246605917	1.0024120822174
0	345	173.580943176816	1.0091915300978
0	346	173.67764531794	1.0039170249592
0	349	173.854619460171	0.99916447965616
0	350	173.928334425884	0.99387619671934
0	352	174.382998752471	0.99081249291177
0	354	174.674765641342	0.98686308271945
0	356	174.81991785881	0.98213436999331
0	358	176.348481881962	0.9851870496199
0	360	176.956015349745	0.98308897416525
0	362	177.386066448872	0.98003351629211
0	364	177.988094345468	0.97795656233774
0	366	179.643286120248	0.98165730120354
0	368	182.326756896821	0.99090628748272
0	370	183.381293130786	0.99125023313938
0	372	183.623681155109	0.98722409223177
0	374	184.761842398626	0.9880312427734
0	376	187.157880140239	0.99552063904382
0	378	187.445729685652	0.99177634754313
0	380	189.418003167785	0.99693685877782
0	382	190.055266033492	0.99505374886645
0	384	190.760396478204	0.99354373165731
0	386	191.677672041593	0.993148559801
0	388	193.379014099144	0.99679904174816
0	390	194.788960098147	0.99891774409306
0	392	195.409312272969	0.99698628710698
0	394	198.432774509265	1.0072729670521
0	396	199.434456205144	1.0072447283088
0	398	200.013079559057	1.0050908520556
0	400	201.754321141724	1.0087716057086
0	402	202.922222138806	1.0095632942229
0	404	204.133577625102	1.0105622654708
0	406	208.487638978603	1.0270327043281
0	408	211.575813417812	1.0371363402834
0	410	213.481433888075	1.0413728482345
0	412	213.822961566483	1.0379755415849
0	414	214.593909742672	1.0366855543124
0	416	215.316351173226	1.0351747652559
0	418	215.425534462027	1.0307441840288
0	420	215.960018559034	1.0283810407573
0	422	216.81973200169	1.0275816682545
0	424	218.911778406921	1.0326027283345
0	426	219.491665939474	1.0304773048802
0	428	220.800065179903	1.0317760055136
0	430	222.834638434286	1.0364401787641
0	432	224.092160883993	1.0374637077963
0	434	225.705206934677	1.0401161609893
0	436	226.931205449122	1.0409688323354
0	439	228.284900578603	1.042396806295
0	440	228.304177595968	1.0377462617999
0	442	230.476007425656	1.0428778616546
0	444	231.220421386544	1.0415334296691
0	447	231.842779746894	1.0396537208381
0	448	231.910195868846	1.0353133744145
0	450	233.159941517469	1.0362664067443
0	452	233.831215978715	1.0346513981359
0	454	234.932870085611	1.0349465642538
0	456	236.078728459198	1.0354330195579
0	458	236.301315599283	1.0318834742327
0	460	238.785829078209	1.0381992568618
0	462	240.79486933924	1.0424020317716
0	464	243.002314085309	1.0474237676091
0	466	243.787463199817	1.0462981253211
0	468	243.937350479719	1.0424673097424
0	470	244.535819382893	1.0405779548208
0	472	249.079189180422	1.0554202931374
0	474	249.321938655705	1.0519913023447
0	476	249.912571535656	1.0500528215784
0	478	250.291977764161	1.0472467688877
0	480	251.014882249841	1.0458953427077
0	482	253.147759330569	1.0504056403758
0	484	253.727087879568	1.0484590408247
0	486	254.357319946528	1.0467379421668
0	488	256.000572781062	1.0491826753322
0	490	256.454952006214	1.0467549061478
0	492	256.692598921538	1.0434658492745
0	494	263.724393083616	1.0677100934559
0	496	263.891161594099	1.0640772644923
0	498	264.886734387821	1.0638021461358
0	502	265.844759941942	1.0633790397678
0	503	265.845355161532	1.059144841281
0	504	265.84623454802	1.0549453751906
0	506	267.33059174656	1.0566426551247
0	508	268.630103054806	1.0575988309244
0	510	269.014556837387	1.0549590464211
0	512	269.555367066777	1.0529506526046
0	514	270.702626362555	1.0533176123057
0	516	271.843818390065	1.0536582108142
0	518	272.073561017788	1.0504770695667
0	520	273.884013397331	1.0534000515282
0	522	275.118172632819	1.0540926154514
0	525	276.882557931124	1.0568036562257
0	527	276.98187983084	1.0531630411819
0	528	277.067151931781	1.0494967876204
0	530	278.511095972897	1.0509852678223
0	532	279.504191716799	1.0507676380331
0	534	279.744802151789	1.0477333413925
0	537	279.985024213787	1.0447202396037
0	538	280.069559528768	1.0411507789174
0	540	280.561928591068	1.039118254041
0	542	283.601814836101	1.0465011617568
0	544	286.549615642366	1.0534912339793
0	546	287.043671969825	1.0514420218675
0	548	287.357307597107	1.0487492977997
0	550	288.535511878797	1.0492200431956
0	552	288.869635926471	1.0466291156756
0	554	290.369617920119	1.0482657686647
0	556	291.901470925637	1.0500052910994
0	558	292.450448185223	1.0482094917033
0	560	292.781951029625	1.0456498251058
0	563	292.997582210764	1.0426960221024
0	564	293.008962953242	1.0390388757207
0	566	293.221938174602	1.0361199228785
0	568	297.310447691553	1.0468677735618
0	570	297.590233352116	1.0441762573758
0	572	299.303511236653	1.0465157735547
0	574	299.450220434241	1.0433805590043
0	576	299.957956985634	1.0415206839779
0	578	300.876776181368	1.0410961113542
0	580	301.071429910166	1.0381773445178
0	582	302.833755153094	1.0406658252684
0	584	303.005411204845	1.0376897644002
0	586	307.423023653006	1.0492253366997
0	588	307.720309906292	1.0466677207697
0	590	307.986359905833	1.0440215590028
0	592	308.093541387292	1.0408565587409
0	594	308.341247449225	1.0381860183476
0	596	309.348331536833	1.0380816494525
0	598	310.539083144327	1.0385922513188
0	600	312.122706211258	1.0404090207042
0	602	313.314232832564	1.0409110725334
0	604	314.71235856236	1.0420939025244
0	606	315.819569641794	1.042308810699
0	609	316.82313516786	1.0421813656837
0	610	316.881231193332	1.0389548563716
0	612	317.793073426125	1.0385394556409
0	614	318.050559645912	1.0359953082929
0	616	318.434426505203	1.0338780081338
0	618	319.637847596934	1.0344266912522
